% Model:              shortPowerline.mph
% Version:            COMSOL 6.3.0.290
% Date:               Oct 21 2025  23:38
% Dimension:          3
% Nodes:              8
% Expressions:        4
% Description:        电场，x 分量  电场，y 分量  电场，z 分量  电场模
% Length unit:        m
% x y z esbe.Ex (V/m) @ freq=50 esbe.Ey (V/m) @ freq=50 esbe.Ez (V/m) @ freq=50 esbe.normE (V/m) @ freq=50
0 0 2 807.8201267899149 461.4010986015321 1.7840179993896057 2.716555657591203 12325.11073778172 21345.067735534154 24665.47680922783
1 0 2 -2730.8812324611986 6660.139147029482 2.1815323749685644 2.8108627879916384 10576.51209615328 17463.448617612685 21648.321509154273
0 1 2 805.2666194789326 459.44734675850873 -30.600487880709466 53.33442247080501 12319.10102535145 21334.598902784302 24653.37071393828
1 1 2 -2733.8090068380207 6658.810971870144 -36.62360113672591 50.40533962312236 10568.393925460905 17452.736942595217 21635.765162862543
0 0 3 1142.7236751423657 656.8780446080209 1.0549766093463264 1.5369817836486759 21966.144623768727 38046.527753055794 43952.09998776937
1 0 3 -8603.508942550721 17631.977151398758 1.457503933892582 1.7696868981211593 12266.075711663658 20536.69933004051 30937.34995737125
0 1 3 1138.7410991058723 654.2963747415104 -25.809475960498474 44.82976642388739 21977.842525857966 38067.35954415508 43975.86765066933
1 1 3 -8609.820499854286 17633.602356209052 -48.69184546780987 65.335149981737 12261.356409248858 20531.415026477844 30934.761105564707
