% Model:              shortPowerline.mph
% Version:            COMSOL 6.3.0.290
% Date:               Oct 25 2025  22:30
% Dimension:          3
% Nodes:              8
% Expressions:        4
% Description:        电场，x 分量  电场，y 分量  电场，z 分量  电场模
% Length unit:        m
% x y z esbe.Ex (V/m) @ freq=50 esbe.Ey (V/m) @ freq=50 esbe.Ez (V/m) @ freq=50 esbe.normE (V/m) @ freq=50
0 0 2 695.1995240790757 395.2806214606376 1.8723904222486607 3.3959203679153775 24407.11425366568 42273.08663498312 48819.67476362765
1 0 2 -9123.455590091871 17470.73048988822 2.4836437713821393 3.71937951434506 14007.194847134138 23536.393684691684 33743.550804906925
0 1 2 693.0985069794724 393.4161435355302 -8.961925377269935 15.410457666131236 24417.67292154926 42291.62305866 48840.96243359897
1 1 2 -9127.600245707352 17472.590923208667 -29.15723021276996 38.957794316223044 14000.410306072848 23527.40056708747 33736.58183413994
0 0 3 NaN+559.0996897516225i NaN-3.068327029292959i NaN-4498.113847542226i NaN
1 0 3 -19793.903323405484 36621.70700221107 1.4526328201705754 2.0509665057645954 2855.5687285427307 4362.358102323823 41953.93282905746
0 1 3 NaN+556.8052692458298i NaN-241.7575274276528i NaN-4486.904362024107i NaN
1 1 3 -19815.643439781874 36651.83681735118 -28.44192641140053 32.81630310079083 2848.3977881930928 4352.033117355579 41988.95467960092
