% Model:              shortPowerline.mph
% Version:            COMSOL 6.3.0.290
% Date:               Oct 7 2025, 22:38
% Dimension:          3
% Nodes:              8
% Expressions:        4
% Description:        电场，x 分量, 电场，y 分量, 电场，z 分量, 电场模
% Length unit:        m
% x,y,z,esbe.Ex (V/m) @ freq=50,esbe.Ey (V/m) @ freq=50,esbe.Ez (V/m) @ freq=50,esbe.normE (V/m) @ freq=50
0,0,2,564.7007206283379+318.89703670943527i,-25.08151901797178+41.73638686202161i,79239.15840952449-137251.27064351898i,158484.000681276
1,0,2,-20005.07526435851+36008.978009520324i,2.681086250526401-4.31991381007136i,8285.532073334803-13767.03740727098i,44215.73159164172
0,1,2,563.1121813980876+317.1939254086444i,29286.644226674634-50732.88887456236i,169199.91329641765-293086.81879466993i,343453.7017730754
1,1,2,-20022.381649746807+36035.063448001674i,-12.189402794528462+11.401754098339268i,8279.935373971293-13759.361451295104i,44241.374306814745
0,0,3,785.6953342665201+449.97975895862214i,1.1048261982540226-1.8991175323672786i,-23525.47254831464+40755.64037964438i,47066.86610711886
1,0,3,-11780.209745738852+22292.249522703853i,1.891294757457803-2.6547371654216176i,-7392.143056373463+13264.50183391151i,29433.119592194915
0,1,3,783.0132796882217+448.0319773330252i,29.948675347423006-51.880991330928i,-23602.650167571024+40890.47649635289i,47222.17269504682
1,1,3,-11784.695307669692+22293.703328131167i,-39.10000863440858+54.4408920071819i,-7400.545528813433+13277.731067134533i,29444.16683511229
