% Model:              shortPowerline.mph
% Version:            COMSOL 6.3.0.290
% Date:               Oct 23 2025, 21:23
% Dimension:          3
% Nodes:              8
% Expressions:        4
% Description:        电场，x 分量, 电场，y 分量, 电场，z 分量, 电场模
% Length unit:        m
% x,y,z,esbe.Ex (V/m) @ freq=50,esbe.Ey (V/m) @ freq=50,esbe.Ez (V/m) @ freq=50,esbe.normE (V/m) @ freq=50
0,0,2,603.4142290777559,341.52441995041363,-3.0106483696560415,4.30363139565366,55922.84939191716,96863.49927981218,111849.82499802021
1,0,2,-17364.325469648073,31527.355197215315,2.619545147377141,4.164672152606354,11732.654030114967,19696.674496353244,42674.44323900928
0,1,2,601.6712181821445,339.76898564216685,2478.8069871097555,4294.93202038013,59959.629923351655,103858.0129147451,120027.9652560272
1,1,2,-17375.88053131298,31543.0996626992,-18.421089491316522,21.622161473212316,11728.055546461463,19691.003193137636,42686.907373067945
0,0,3,841.1332528047169,482.0487425815361,0.009247814297712154,0.24287635892794812,-32987.46800497126,57145.5832595726,65990.38269061652
1,0,3,-14677.185629559372,27442.597949827494,1.742862518968039,2.4540781528132296,-6385.655052790131,11556.406284345496,33805.96228422693
0,1,3,838.2504540264681,479.99633191691396,389.77083398897844,675.4493198906216,-33503.32921756997,58040.902433630916,67028.05858265805
1,1,3,-14684.83709767949,27449.207059237342,-37.44430544416217,50.6249152159715,-6395.581686382187,11572.140677854819,33821.96444175839
